# LAMMPS data file written by OVITO Basic 3.7.8
344 atoms
2 atom types
-6.3296576 12.09618293 xlo xhi
-11.20798214 16.01430936 ylo yhi
1.1276019 36.1293343 zlo zhi

Masses

1 95.94  # Mo
2 32.065  # S

Atoms  # charge

1 1 0.0 -4.66299097 -0.28944325 3.17406144
2 1 0.0 -3.45230181 -2.9491908 8.72630113
3 2 0.0 -5.12491465 -0.46996162 7.42440396
4 2 0.0 -4.07262802 -2.23358148 1.88059931
5 2 0.0 -4.13360319 -2.6653773 3.7137475
6 2 0.0 -5.07710056 -0.893919 10.5249142
7 1 0.0 -1.75097439 -2.79014314 3.14746255
8 1 0.0 -0.73758887 -4.72164759 8.79870194
9 2 0.0 -1.73833163 -2.71851476 7.67356633
10 2 0.0 -0.69356775 -4.43709207 1.62038659
11 2 0.0 -0.81138323 -4.47332084 4.76532701
12 2 0.0 -2.0591923 -2.87036682 10.42495189
13 1 0.0 1.18490848 -4.44875237 3.24470651
14 1 0.0 1.85969369 -6.36818432 8.84913049
15 2 0.0 1.07944293 -4.30777711 7.56438441
16 2 0.0 1.98664609 -6.09301982 1.56287695
17 2 0.0 2.29799123 -5.93367778 4.9054265
18 2 0.0 1.15464635 -4.37591474 10.78828463
19 1 0.0 4.1579088 -5.88170991 3.24314485
20 1 0.0 4.8665262 -7.6679421 9.17308572
21 2 0.0 4.14017409 -6.04611817 7.49917007
22 2 0.0 4.46203612 -8.07718743 2.0686518
23 2 0.0 4.94672045 -7.74451299 4.69791986
24 2 0.0 3.5552937 -6.24727245 10.59975137
25 1 0.0 6.61663479 -7.17484206 2.92663529
26 1 0.0 7.58116173 -9.37962314 8.95066597
27 2 0.0 6.8104944 -7.74054587 7.30881247
28 2 0.0 7.74008666 -8.86514324 1.49846867
29 2 0.0 7.86020368 -8.90496605 4.17038619
30 2 0.0 6.88037137 -7.59505725 10.48166776
31 1 0.0 9.87911677 -9.23914537 2.746544
32 1 0.0 10.2127904 -10.89406877 8.17361622
33 2 0.0 9.37425851 -8.74262953 7.3850693
34 2 0.0 10.03939358 -11.20798214 1.20964862
35 2 0.0 11.47160236 -10.60473769 4.12574507
36 2 0.0 9.38366432 -10.13557717 10.36180896
37 1 0.0 -5.25231714 2.33562325 3.22663239
38 1 0.0 -3.82637811 0.77092982 9.16531354
39 2 0.0 -4.97020897 2.28919855 7.50266162
40 2 0.0 -3.46346749 0.98692822 1.50226824
41 2 0.0 -3.76794316 0.80256277 4.89940607
42 2 0.0 -4.9005868 2.46766244 10.63461782
43 1 0.0 -1.87700145 0.4653912 3.3080365
44 1 0.0 -0.90505236 -0.94066308 9.22688314
45 2 0.0 -1.90057518 0.67003343 7.56233654
46 2 0.0 -0.74714688 -1.13019863 1.51276527
47 2 0.0 -0.74713604 -1.18578206 4.83683948
48 2 0.0 -2.00043456 0.63271829 10.85699899
49 1 0.0 1.13506389 -1.02698814 3.19057944
50 1 0.0 2.0276283 -2.60630389 9.19855339
51 2 0.0 1.01293907 -0.94640335 7.58749383
52 2 0.0 2.23020056 -2.64966077 1.58124432
53 2 0.0 2.18882621 -2.69777348 4.77893925
54 2 0.0 0.95239466 -1.11535996 10.93845944
55 1 0.0 4.14955109 -2.62509799 3.19129522
56 1 0.0 5.06863534 -4.32854778 9.11575592
57 2 0.0 4.17866302 -2.64422418 7.47540467
58 2 0.0 5.10961116 -4.27561463 1.57120546
59 2 0.0 5.11455124 -4.27838814 4.84488512
60 2 0.0 3.93147682 -2.86854203 10.84764994
61 1 0.0 7.100735 -3.96375983 3.0401704
62 1 0.0 7.72004289 -6.1924419 9.06591099
63 2 0.0 7.13741663 -4.28181795 7.63775174
64 2 0.0 7.94413112 -5.66850815 1.49534049
65 2 0.0 7.83691754 -5.78076283 4.57802564
66 2 0.0 6.86255402 -4.17903497 10.85859238
67 1 0.0 9.82360419 -5.44699642 3.10115457
68 1 0.0 10.34728048 -7.79488282 9.44803123
69 2 0.0 9.78173704 -6.06810142 7.32184665
70 2 0.0 10.71306254 -7.31018419 1.38121562
71 2 0.0 10.81429926 -7.44125473 4.20006359
72 2 0.0 9.40208638 -5.74135268 10.40012806
73 1 0.0 -4.68253308 5.68643893 3.07542132
74 1 0.0 -4.3996779 3.92114255 8.70020598
75 2 0.0 -5.11002231 5.49837633 6.97784732
76 2 0.0 -4.0818332 3.28299515 2.0180805
77 2 0.0 -3.82827258 3.9218583 4.67617763
78 2 0.0 -4.47908468 5.61188116 10.88851878
79 1 0.0 -1.68050646 4.02660527 3.08487954
80 1 0.0 -0.89246528 2.46308879 9.04055627
81 2 0.0 -2.14090959 4.10603421 7.61038877
82 2 0.0 -1.0007265 2.32655914 1.84601314
83 2 0.0 -0.94478067 2.30313623 4.79317175
84 2 0.0 -1.7988529 3.96373445 10.75600937
85 1 0.0 1.0787915 2.30053426 3.23096583
86 1 0.0 2.09164699 0.79627876 9.0634662
87 2 0.0 1.05354837 2.38770018 7.42569634
88 2 0.0 2.08178407 0.6852235 1.5745004
89 2 0.0 2.14930894 0.62468218 4.80417128
90 2 0.0 0.96454385 2.32916828 10.70358332
91 1 0.0 4.17138577 0.73800773 3.24626118
92 1 0.0 4.99574919 -0.91719352 9.11857523
93 2 0.0 4.06330488 0.77029862 7.49750759
94 2 0.0 5.07139555 -0.93878317 1.54578964
95 2 0.0 5.01494333 -1.03158669 4.87675804
96 2 0.0 3.93546442 0.63739013 10.77876444
97 1 0.0 7.04805695 -0.77819733 3.39401817
98 1 0.0 7.84992922 -2.40989278 9.1836987
99 2 0.0 6.99813894 -0.75914252 7.59023806
100 2 0.0 7.93786554 -2.36210252 1.31635975
101 2 0.0 7.97008149 -2.51846596 4.9066215
102 2 0.0 6.80325771 -0.85654087 10.87557613
103 1 0.0 9.7975546 -2.32631901 2.86167564
104 1 0.0 10.8803277 -4.08506515 9.44240544
105 2 0.0 9.89874841 -2.55611524 7.75628231
106 2 0.0 10.6312676 -4.23876826 1.1276019
107 2 0.0 11.86600664 -3.1161026 3.94420766
108 2 0.0 9.58496127 -2.30924077 11.01711573
109 1 0.0 -5.31049088 8.82933507 3.52831115
110 1 0.0 -3.84684815 7.38061545 9.30294666
111 2 0.0 -4.78801268 9.06459627 7.74475958
112 2 0.0 -3.79388778 7.2154034 1.9396761
113 2 0.0 -3.73811561 7.32447163 4.73966714
114 2 0.0 -4.69156459 9.02229941 10.8994686
115 1 0.0 -1.69862447 7.37647062 3.29431031
116 1 0.0 -1.02185917 5.77100747 9.16429385
117 2 0.0 -2.04694714 7.45288014 7.55695368
118 2 0.0 -0.82794654 5.73427499 1.62788217
119 2 0.0 -0.82097574 5.70983318 4.9335287
120 2 0.0 -1.92331157 7.35253585 10.92103566
121 1 0.0 1.08114732 5.76051494 3.2878278
122 1 0.0 1.92705678 4.04898206 9.12632264
123 2 0.0 0.95238494 5.74326165 7.55386435
124 2 0.0 2.02696246 4.04378359 1.67602706
125 2 0.0 1.97780381 3.99289751 4.86275897
126 2 0.0 0.99744069 5.69152706 10.80482805
127 1 0.0 3.9424825 4.10062658 3.31783402
128 1 0.0 4.92727853 2.38344639 9.2357163
129 2 0.0 3.9690304 4.08434532 7.62790895
130 2 0.0 5.02651287 2.55510655 1.64784377
131 2 0.0 4.96131602 2.467541 4.96454775
132 2 0.0 3.8714284 3.98830542 10.89457308
133 1 0.0 6.89046716 2.45519775 3.34022895
134 1 0.0 7.92622259 0.8128369 9.32409029
135 2 0.0 6.9171673 2.44104801 7.67768833
136 2 0.0 7.91942893 0.86543673 1.71718943
137 2 0.0 8.05077415 0.91239729 4.95102323
138 2 0.0 6.65994918 2.60362291 11.02729859
139 1 0.0 10.4549182 1.04141147 3.55766947
140 1 0.0 10.75757525 -0.85500985 9.37063397
141 2 0.0 9.9609214 0.84910757 7.7785084
142 2 0.0 11.3739541 -1.13242851 1.38109298
143 2 0.0 11.02112803 -0.17900446 4.9828963
144 2 0.0 9.81271794 1.28264206 10.95183852
145 1 0.0 -5.14598375 12.39534796 3.52911335
146 1 0.0 -3.94381232 10.76496171 9.31051523
147 2 0.0 -4.95684503 12.46713924 7.81609262
148 2 0.0 -4.31199859 10.39715751 1.78843835
149 2 0.0 -3.83024832 10.58175211 4.54890977
150 2 0.0 -4.10947486 12.59952623 10.99443427
151 1 0.0 -2.19257938 11.04974974 3.40847683
152 1 0.0 -1.1498989 9.02560609 9.26934524
153 2 0.0 -2.03253165 10.8128682 7.67424961
154 2 0.0 -0.89226446 9.20989618 1.77045879
155 2 0.0 -0.95062977 9.10112919 4.9608179
156 2 0.0 -2.07161191 10.68812312 10.91484936
157 1 0.0 0.98780516 9.19469489 3.35764434
158 1 0.0 1.85525074 7.42381397 9.20198543
159 2 0.0 0.90115428 9.32029737 7.80323993
160 2 0.0 2.05383022 7.52997442 1.82208568
161 2 0.0 1.95949134 7.47096666 4.90846122
162 2 0.0 0.90087774 9.3323867 10.57717912
163 1 0.0 3.75206863 7.47052665 3.29332734
164 1 0.0 4.81649032 5.74372197 9.33377679
165 2 0.0 3.87961162 7.45026503 7.70367435
166 2 0.0 5.06867589 5.86601314 1.94241646
167 2 0.0 4.73185948 5.73811459 5.06959386
168 2 0.0 3.61187679 7.4830691 11.01319461
169 1 0.0 6.64552914 6.08053382 3.53452329
170 1 0.0 7.64690577 4.1880252 9.33060326
171 2 0.0 6.78084374 5.93885254 7.78578518
172 2 0.0 7.88935835 4.40502252 2.08979195
173 2 0.0 7.81374057 4.23117855 4.85406991
174 2 0.0 6.67242932 5.94197758 11.31965128
175 1 0.0 9.92852643 4.22050797 3.4805361
176 1 0.0 10.52308732 2.92398897 9.7985744
177 2 0.0 9.5961102 4.62736087 7.82136309
178 2 0.0 12.09618293 3.6113347 2.37227189
179 2 0.0 10.90884873 3.00787505 5.43331749
180 2 0.0 9.09642122 4.67077622 10.77112151
181 1 0.0 -4.0933083 16.01430936 4.15520213
182 1 0.0 -4.09770506 14.53437519 9.48406348
183 2 0.0 -4.81509551 15.47115607 7.34284348
184 2 0.0 -3.92064518 14.22188545 2.46943593
185 2 0.0 -3.74592599 13.8981392 5.28195156
186 2 0.0 -6.3296576 15.38314054 10.11288363
187 1 0.0 -1.70597947 13.98631004 3.42383141
188 1 0.0 -1.36463229 12.50078466 9.38362811
189 2 0.0 -2.19634018 13.91364777 8.11487247
190 2 0.0 -1.06458852 12.99637602 1.88698664
191 2 0.0 -1.11720803 12.17743966 4.92577723
192 2 0.0 -1.63211935 14.51510224 11.00108866
193 1 0.0 1.15058713 12.35055128 3.45605371
194 1 0.0 1.8008597 11.17019871 9.24452435
195 2 0.0 0.63875734 12.9975371 7.63174862
196 2 0.0 1.78200792 11.02110099 1.84007082
197 2 0.0 1.80017655 10.89836159 4.96471644
198 2 0.0 1.01309277 12.50653123 10.67357998
199 1 0.0 4.09222773 10.84958445 4.01122827
200 1 0.0 4.73997663 8.96141471 9.394275
201 2 0.0 3.80149826 10.73166205 7.5288771
202 2 0.0 4.42582035 9.43916291 1.99640949
203 2 0.0 5.03361792 8.88530421 5.12141422
204 2 0.0 3.92797437 10.65812111 10.92470728
205 1 0.0 6.54841797 9.04730689 3.21624276
206 1 0.0 7.56175236 7.65102573 9.50843113
207 2 0.0 6.56865406 9.32593056 7.88340661
208 2 0.0 8.02424693 7.55659322 2.03141754
209 2 0.0 7.89007396 7.56456107 5.17941021
210 2 0.0 6.78603936 9.26726141 11.31476057
211 1 0.0 9.41680745 7.65007113 3.65255414
212 1 0.0 10.65606149 5.78587129 9.62632609
213 2 0.0 9.54386065 7.74744671 7.88494726
214 2 0.0 11.099449 5.68057411 1.82900528
215 2 0.0 10.65835759 6.10681681 4.923145
216 2 0.0 9.44625538 7.30999437 11.14357058
217 2 0.0 4.14680353 -0.93099656 16.90489196
218 2 0.0 0.94238253 2.94822345 20.1546967
219 2 0.0 -2.92947583 4.86785107 23.05539452
220 2 0.0 -1.37408151 8.04157705 25.57144188
221 2 0.0 1.37274167 -3.26108538 31.74541014
222 2 0.0 5.21226794 2.47862211 30.99347873
223 2 0.0 0.85351774 2.11038261 36.02300696
224 2 0.0 4.58588571 7.1280527 35.73144016
225 2 0.0 1.14859096 -1.33675892 22.21493634
226 2 0.0 -2.29175028 -0.65354329 35.66239673
227 2 0.0 1.68283601 5.48567966 35.17423374
228 2 0.0 -3.93345438 3.26222989 21.57724415
229 2 0.0 4.69380301 1.53746903 23.92849215
230 2 0.0 -3.23148523 2.11545959 29.94734266
231 2 0.0 -3.12069826 -1.76338052 34.44767123
232 2 0.0 1.29369845 4.35064328 33.73177534
233 2 0.0 2.92145242 -3.04869205 29.78355384
234 2 0.0 3.08743211 2.81658606 18.323588
235 2 0.0 -3.67238088 -3.51291171 18.00401339
236 2 0.0 3.76913756 0.62507183 15.94198993
237 2 0.0 2.85941927 -0.29685716 33.05895058
238 2 0.0 -2.04677688 4.9541743 33.61307932
239 2 0.0 -1.21773346 6.46841123 16.96627444
240 2 0.0 -1.07099267 -1.01708072 27.80779552
241 2 0.0 4.48536389 5.58321978 27.49953637
242 2 0.0 3.11872695 5.10170952 21.18482215
243 2 0.0 -1.96980367 -1.16419581 21.22904518
244 2 0.0 3.36144729 5.11408389 31.04372928
245 2 0.0 -1.56620383 -0.75056159 30.54156493
246 2 0.0 -1.76092815 4.75151588 19.78142397
247 2 0.0 3.34249981 1.64716065 27.02861221
248 2 0.0 -0.12409423 -3.93479193 26.97602193
249 2 0.0 -1.4387921 3.1184467 15.95672298
250 2 0.0 1.38920335 -0.46235992 23.84514525
251 2 0.0 -2.99835587 1.26084533 19.49307979
252 2 0.0 2.13762371 7.60982241 19.59969862
253 2 0.0 3.20094545 -0.63815496 19.24329904
254 2 0.0 3.59468541 3.32743702 33.90849632
255 2 0.0 -1.67615832 -2.99958133 34.45952851
256 2 0.0 1.1516607 1.49021398 30.53030213
257 2 0.0 -1.6621938 2.21974291 22.00725644
258 2 0.0 4.93083392 -0.28755067 23.66967191
259 2 0.0 3.17396107 -2.79489415 21.88222206
260 2 0.0 -0.17317716 6.1331155 24.40703945
261 2 0.0 0.83684914 0.2703162 35.68824268
262 2 0.0 5.54758186 5.52960178 35.9312589
263 2 0.0 3.81546307 -3.9200563 17.66887073
264 2 0.0 0.6598659 -1.07486944 25.43988602
265 2 0.0 5.15009373 4.59283102 24.25338727
266 2 0.0 5.6943755 -0.90890061 13.10015613
267 2 0.0 5.89510054 -2.28631451 19.64958392
268 2 0.0 -0.0706394 5.43201163 18.06228247
269 2 0.0 2.35928635 1.76535573 21.46698845
270 2 0.0 -0.14705336 -1.51942016 29.61597622
271 2 0.0 4.45364123 4.96001203 29.54264554
272 2 0.0 -2.71981279 8.73601448 21.20718415
273 2 0.0 -3.3720755 1.05358707 33.04807549
274 2 0.0 2.11683459 7.33340858 33.20958569
275 2 0.0 5.53318038 7.77961525 32.70266256
276 2 0.0 -0.04432105 1.38396702 32.75412625
277 2 0.0 -3.32710421 7.19668903 31.78815406
278 2 0.0 0.28716635 7.02509429 21.21305656
279 2 0.0 0.12484977 4.47331762 13.31284396
280 2 0.0 5.31407059 1.49482041 20.49791943
281 2 0.0 -1.50312253 -2.69479682 22.56266765
282 2 0.0 2.63344266 4.87784363 22.05656922
283 2 0.0 3.16626756 -1.71956062 34.21660177
284 2 0.0 -1.81492554 3.50096213 34.75272788
285 2 0.0 -0.12186177 1.85689735 29.21449273
286 2 0.0 -1.6715941 1.47257729 14.10532518
287 2 0.0 2.64660706 7.94630924 13.98825027
288 2 0.0 3.41991637 1.11015142 26.06551759
289 2 0.0 5.89965078 -3.28784353 29.69975993
290 2 0.0 6.96782651 0.8999783 16.54422232
291 2 0.0 -0.49990638 -3.73458806 17.98716446
292 2 0.0 -3.06267827 7.38970079 25.97816846
293 2 0.0 -1.22776905 -1.51478404 19.56471459
294 2 0.0 4.08955006 4.67515168 19.65372655
295 2 0.0 -3.05982941 3.82782764 30.66739932
296 2 0.0 5.22611471 1.80045108 14.94157873
297 2 0.0 4.77719686 -0.60031049 31.47609045
298 2 0.0 3.16751992 -1.22167536 30.06046469
299 2 0.0 3.06179133 4.60508598 17.81521853
300 2 0.0 -3.88706478 2.09132101 34.50956211
301 2 0.0 -3.22051059 -1.00643734 18.09807737
302 2 0.0 -0.11031169 8.08248459 15.70404199
303 2 0.0 0.37347478 1.06484535 27.89357235
304 2 0.0 3.70760486 -0.81551218 20.12368478
305 2 0.0 5.93751412 6.61455967 26.88474219
306 2 0.0 2.12581303 5.35330337 25.1630677
307 2 0.0 1.48953204 -2.9640509 35.67330085
308 2 0.0 -0.89889101 7.12745873 28.96765687
309 2 0.0 1.50639501 2.7460569 22.78850795
310 2 0.0 -3.91944081 -0.19026496 26.29590714
311 2 0.0 -3.7666335 -3.79522902 22.31934438
312 2 0.0 -0.97173632 5.65272084 21.24775342
313 2 0.0 -2.67951286 7.09703898 14.22767675
314 2 0.0 -0.496997 -0.4235396 32.80279758
315 2 0.0 -1.1702502 4.30942771 31.3230945
316 2 0.0 5.10386301 5.96766199 32.63236916
317 2 0.0 4.11075375 1.59817184 28.72277593
318 2 0.0 4.98781491 7.54856133 16.75173769
319 2 0.0 1.04938929 -0.60110687 14.13843882
320 2 0.0 -0.79484376 1.6641724 16.95325332
321 2 0.0 -2.28676968 1.39242628 23.53132438
322 2 0.0 3.09651866 2.83142015 13.22682952
323 2 0.0 -0.33567253 -3.79385758 13.99432798
324 2 0.0 1.94150992 7.44482014 23.89440721
325 2 0.0 3.89077332 1.47964171 35.62726487
326 2 0.0 -0.86362084 2.93910045 25.22964163
327 2 0.0 4.09208474 -3.57862662 24.836199
328 2 0.0 0.91934795 -1.29089162 15.85699604
329 2 0.0 -2.04525741 2.77282575 26.67054136
330 2 0.0 5.36869887 4.85505551 15.55201361
331 2 0.0 5.36401806 -1.22810225 26.89124727
332 2 0.0 -2.16280425 -1.53715636 14.7018291
333 2 0.0 1.29955636 4.89705338 15.02039141
334 2 0.0 0.6791699 0.63771139 17.44970359
335 2 0.0 5.45040177 6.71085926 15.41461371
336 2 0.0 5.84996831 -0.19048093 28.34798302
337 2 0.0 -2.24802545 6.78082485 36.1293343
338 2 0.0 2.10293434 -1.69360385 26.87465422
339 2 0.0 -1.91722615 -3.31394711 15.2438068
340 2 0.0 2.40355473 3.39369926 14.86805705
341 2 0.0 3.16445424 -3.16206536 26.40217692
342 2 0.0 1.41055803 6.18884743 28.49620461
343 2 0.0 0.4592511 4.68781676 27.91425208
344 2 0.0 -2.8308957 4.2529464 27.3825076
